<?xml version="1.0" encoding="UTF-8"?>

<!-- generated on 01/23/16 22:16:03 by SUMO Version 0.24.0
<?xml version="1.0" encoding="UTF-8"?>

<configuration xmlns:xsi="http://www.w3.org/2001/XMLSchema-instance" xsi:noNamespaceSchemaLocation="http://sumo.dlr.de/xsd/sumoConfiguration.xsd">

    <input>
        <net-file value="Scenarios_2/dsc.net.xml"/>
        <route-files value="Scenarios_2/dsc.rou.xml"/>
        <additional-files value="Scenarios_2/dsc.add.xml"/>
    </input>

    <output>
        <tripinfo-output value="tripinfo.xml"/>
        <save-state.prefix value="Scenarios_2/state"/>
    </output>

    <time>
        <begin value="0"/>
    </time>

    <report>
        <verbose value="true"/>
        <no-step-log value="true"/>
    </report>

    <emissions>
        <phemlight-path value="Scenarios_2/./PHEMlight/"/>
    </emissions>

    <traci_server>
        <remote-port value="8813"/>
    </traci_server>

    <gui_only>
        <gui-settings-file value="Scenarios_2/dsc.settings.xml"/>
    </gui_only>

</configuration>
-->

<tripinfos xmlns:xsi="http://www.w3.org/2001/XMLSchema-instance" xsi:noNamespaceSchemaLocation="http://sumo.dlr.de/xsd/tripinfo_file.xsd">
    <tripinfo id="flowsL2C.0" depart="1.00" departLane="L_LJ_0" departPos="8.10" departSpeed="0.00" departDelay="0.00" arrival="944.00" arrivalLane="AC_C_0" arrivalPos="81.95" arrivalSpeed="1.36" duration="943.00" routeLength="1234.68" waitSteps="35" timeLoss="154.28" rerouteNo="0" devices="tripinfo_flowsL2C.0" vType="fireTruck" vaporized=""/>
    <tripinfo id="flowsL2C.1" depart="10.00" departLane="L_LJ_0" departPos="8.10" departSpeed="0.00" departDelay="6.00" arrival="946.00" arrivalLane="AC_C_1" arrivalPos="81.95" arrivalSpeed="1.31" duration="936.00" routeLength="1234.68" waitSteps="26" timeLoss="147.13" rerouteNo="0" devices="tripinfo_flowsL2C.1" vType="fireTruck" vaporized=""/>
    <tripinfo id="flowsL2C.2" depart="20.00" departLane="L_LJ_0" departPos="8.10" departSpeed="0.00" departDelay="13.00" arrival="953.00" arrivalLane="AC_C_0" arrivalPos="81.95" arrivalSpeed="1.24" duration="933.00" routeLength="1234.68" waitSteps="20" timeLoss="144.29" rerouteNo="0" devices="tripinfo_flowsL2C.2" vType="fireTruck" vaporized=""/>
    <tripinfo id="flowsL2C.3" depart="29.00" departLane="L_LJ_0" departPos="8.10" departSpeed="0.00" departDelay="11.00" arrival="956.00" arrivalLane="AC_C_1" arrivalPos="81.95" arrivalSpeed="1.45" duration="927.00" routeLength="1234.68" waitSteps="10" timeLoss="137.88" rerouteNo="0" devices="tripinfo_flowsL2C.3" vType="fireTruck" vaporized=""/>
    <tripinfo id="flowsL2C.4" depart="39.00" departLane="L_LJ_0" departPos="8.10" departSpeed="0.00" departDelay="16.00" arrival="962.00" arrivalLane="AC_C_0" arrivalPos="81.95" arrivalSpeed="1.24" duration="923.00" routeLength="1234.68" waitSteps="9" timeLoss="134.85" rerouteNo="0" devices="tripinfo_flowsL2C.4" vType="fireTruck" vaporized=""/>
    <tripinfo id="flowsL2C.5" depart="49.00" departLane="L_LJ_0" departPos="8.10" departSpeed="0.00" departDelay="15.00" arrival="1013.00" arrivalLane="AC_C_0" arrivalPos="81.95" arrivalSpeed="1.51" duration="964.00" routeLength="1234.68" waitSteps="45" timeLoss="175.37" rerouteNo="0" devices="tripinfo_flowsL2C.5" vType="fireTruck" vaporized=""/>
    <tripinfo id="flowsL2C.6" depart="58.00" departLane="L_LJ_0" departPos="8.10" departSpeed="0.00" departDelay="22.00" arrival="1015.00" arrivalLane="AC_C_1" arrivalPos="81.95" arrivalSpeed="1.51" duration="957.00" routeLength="1234.68" waitSteps="35" timeLoss="168.21" rerouteNo="0" devices="tripinfo_flowsL2C.6" vType="fireTruck" vaporized=""/>
    <tripinfo id="flowsL2C.7" depart="68.00" departLane="L_LJ_0" departPos="8.10" departSpeed="0.00" departDelay="27.00" arrival="1023.00" arrivalLane="AC_C_0" arrivalPos="81.95" arrivalSpeed="1.51" duration="955.00" routeLength="1234.68" waitSteps="35" timeLoss="165.96" rerouteNo="0" devices="tripinfo_flowsL2C.7" vType="fireTruck" vaporized=""/>
    <tripinfo id="flowsL2C.8" depart="78.00" departLane="L_LJ_0" departPos="8.10" departSpeed="0.00" departDelay="27.00" arrival="1025.00" arrivalLane="AC_C_1" arrivalPos="81.95" arrivalSpeed="1.55" duration="947.00" routeLength="1234.68" waitSteps="34" timeLoss="158.45" rerouteNo="0" devices="tripinfo_flowsL2C.8" vType="fireTruck" vaporized=""/>
    <tripinfo id="flowsL2C.9" depart="87.00" departLane="L_LJ_0" departPos="8.10" departSpeed="0.00" departDelay="33.00" arrival="1032.00" arrivalLane="AC_C_0" arrivalPos="81.95" arrivalSpeed="1.19" duration="945.00" routeLength="1234.68" waitSteps="30" timeLoss="156.89" rerouteNo="0" devices="tripinfo_flowsL2C.9" vType="fireTruck" vaporized=""/>
    <tripinfo id="flowsA2B.0" depart="0.00" departLane="A_AC_0" departPos="3.10" departSpeed="0.00" departDelay="0.00" arrival="1037.00" arrivalLane="AC_B_0" arrivalPos="448.55" arrivalSpeed="0.79" duration="1037.00" routeLength="896.90" waitSteps="0" timeLoss="195.49" rerouteNo="0" devices="tripinfo_flowsA2B.0" vType="car" vaporized=""/>
    <tripinfo id="flowsK2C.0" depart="2.00" departLane="K_IK_0" departPos="8.10" departSpeed="0.00" departDelay="0.00" arrival="1041.00" arrivalLane="AC_C_0" arrivalPos="81.95" arrivalSpeed="1.49" duration="1039.00" routeLength="1234.78" waitSteps="126" timeLoss="247.73" rerouteNo="0" devices="tripinfo_flowsK2C.0" vType="fireTruck" vaporized=""/>
    <tripinfo id="flowsI2J.0" depart="5.00" departLane="I_IK_0" departPos="3.10" departSpeed="0.00" departDelay="0.00" arrival="1047.00" arrivalLane="LJ_J_0" arrivalPos="298.55" arrivalSpeed="0.67" duration="1042.00" routeLength="896.90" waitSteps="5" timeLoss="200.36" rerouteNo="0" devices="tripinfo_flowsI2J.0" vType="car" vaporized=""/>
    <tripinfo id="flowsA2B.1" depart="7.00" departLane="A_AC_0" departPos="3.10" departSpeed="0.00" departDelay="0.00" arrival="1048.00" arrivalLane="AC_B_0" arrivalPos="448.55" arrivalSpeed="1.02" duration="1041.00" routeLength="896.90" waitSteps="0" timeLoss="199.52" rerouteNo="0" devices="tripinfo_flowsA2B.1" vType="car" vaporized=""/>
    <tripinfo id="flowsI2J.2" depart="18.00" departLane="I_IK_0" departPos="3.10" departSpeed="0.00" departDelay="11.00" arrival="1056.00" arrivalLane="LJ_J_0" arrivalPos="298.55" arrivalSpeed="1.03" duration="1038.00" routeLength="896.90" waitSteps="0" timeLoss="196.95" rerouteNo="0" devices="tripinfo_flowsI2J.2" vType="car" vaporized=""/>
    <tripinfo id="flowsI2J.1" depart="11.00" departLane="I_IK_0" departPos="3.10" departSpeed="0.00" departDelay="5.00" arrival="1058.00" arrivalLane="LJ_J_0" arrivalPos="298.55" arrivalSpeed="1.01" duration="1047.00" routeLength="896.90" waitSteps="0" timeLoss="205.45" rerouteNo="0" devices="tripinfo_flowsI2J.1" vType="car" vaporized=""/>
    <tripinfo id="flowsI2J.3" depart="24.00" departLane="I_IK_0" departPos="3.10" departSpeed="0.00" departDelay="1.00" arrival="1067.00" arrivalLane="LJ_J_0" arrivalPos="298.55" arrivalSpeed="1.01" duration="1043.00" routeLength="896.90" waitSteps="0" timeLoss="201.30" rerouteNo="0" devices="tripinfo_flowsI2J.3" vType="car" vaporized=""/>
    <tripinfo id="flowsI2J.4" depart="32.00" departLane="I_IK_0" departPos="3.10" departSpeed="0.00" departDelay="8.00" arrival="1073.00" arrivalLane="LJ_J_0" arrivalPos="298.55" arrivalSpeed="0.90" duration="1041.00" routeLength="896.90" waitSteps="0" timeLoss="199.30" rerouteNo="0" devices="tripinfo_flowsI2J.4" vType="car" vaporized=""/>
    <tripinfo id="flowsI2J.5" depart="39.00" departLane="I_IK_0" departPos="3.10" departSpeed="0.00" departDelay="12.00" arrival="1082.00" arrivalLane="LJ_J_0" arrivalPos="298.55" arrivalSpeed="0.89" duration="1043.00" routeLength="896.90" waitSteps="0" timeLoss="201.38" rerouteNo="0" devices="tripinfo_flowsI2J.5" vType="car" vaporized=""/>
    <tripinfo id="flowsL2C.10" depart="96.00" departLane="L_LJ_0" departPos="8.10" departSpeed="0.00" departDelay="35.00" arrival="1083.00" arrivalLane="AC_C_0" arrivalPos="81.95" arrivalSpeed="1.54" duration="987.00" routeLength="1234.68" waitSteps="69" timeLoss="198.21" rerouteNo="0" devices="tripinfo_flowsL2C.10" vType="fireTruck" vaporized=""/>
    <tripinfo id="flowsK2C.1" depart="11.00" departLane="K_IK_0" departPos="8.10" departSpeed="0.00" departDelay="3.00" arrival="1086.00" arrivalLane="AC_C_1" arrivalPos="81.95" arrivalSpeed="1.22" duration="1075.00" routeLength="1234.78" waitSteps="153" timeLoss="283.94" rerouteNo="0" devices="tripinfo_flowsK2C.1" vType="fireTruck" vaporized=""/>
    <tripinfo id="flowsK2C.2" depart="20.00" departLane="K_IK_0" departPos="8.10" departSpeed="0.00" departDelay="10.00" arrival="1092.00" arrivalLane="AC_C_0" arrivalPos="81.95" arrivalSpeed="1.52" duration="1072.00" routeLength="1234.78" waitSteps="150" timeLoss="281.24" rerouteNo="0" devices="tripinfo_flowsK2C.2" vType="fireTruck" vaporized=""/>
    <tripinfo id="flowsA2B.3" depart="20.00" departLane="A_AC_0" departPos="3.10" departSpeed="0.00" departDelay="4.00" arrival="1092.00" arrivalLane="AC_B_0" arrivalPos="448.55" arrivalSpeed="0.84" duration="1072.00" routeLength="896.90" waitSteps="28" timeLoss="230.31" rerouteNo="0" devices="tripinfo_flowsA2B.3" vType="car" vaporized=""/>
    <tripinfo id="flowsK2C.3" depart="30.00" departLane="K_IK_0" departPos="8.10" departSpeed="0.00" departDelay="17.00" arrival="1095.00" arrivalLane="AC_C_1" arrivalPos="81.95" arrivalSpeed="1.56" duration="1065.00" routeLength="1234.78" waitSteps="139" timeLoss="274.24" rerouteNo="0" devices="tripinfo_flowsK2C.3" vType="fireTruck" vaporized=""/>
    <tripinfo id="flowsA2B.6" depart="40.00" departLane="A_AC_0" departPos="3.10" departSpeed="0.00" departDelay="15.00" arrival="1095.00" arrivalLane="AC_B_1" arrivalPos="448.55" arrivalSpeed="1.02" duration="1055.00" routeLength="896.90" waitSteps="14" timeLoss="213.41" rerouteNo="0" devices="tripinfo_flowsA2B.6" vType="car" vaporized=""/>
    <tripinfo id="flowsA2B.2" depart="13.00" departLane="A_AC_0" departPos="3.10" departSpeed="0.00" departDelay="1.00" arrival="1099.00" arrivalLane="AC_B_0" arrivalPos="448.55" arrivalSpeed="0.91" duration="1086.00" routeLength="896.90" waitSteps="33" timeLoss="244.26" rerouteNo="0" devices="tripinfo_flowsA2B.2" vType="car" vaporized=""/>
    <tripinfo id="flowsL2C.11" depart="106.00" departLane="L_LJ_0" departPos="8.10" departSpeed="0.00" departDelay="44.00" arrival="1102.00" arrivalLane="AC_C_0" arrivalPos="81.95" arrivalSpeed="1.46" duration="996.00" routeLength="1234.68" waitSteps="76" timeLoss="206.89" rerouteNo="0" devices="tripinfo_flowsL2C.11" vType="fireTruck" vaporized=""/>
    <tripinfo id="flowsA2B.8" depart="54.00" departLane="A_AC_0" departPos="3.10" departSpeed="0.00" departDelay="17.00" arrival="1104.00" arrivalLane="AC_B_1" arrivalPos="448.55" arrivalSpeed="1.00" duration="1050.00" routeLength="896.90" waitSteps="12" timeLoss="209.02" rerouteNo="0" devices="tripinfo_flowsA2B.8" vType="car" vaporized=""/>
    <tripinfo id="flowsK2C.4" depart="39.00" departLane="K_IK_0" departPos="8.10" departSpeed="0.00" departDelay="25.00" arrival="1106.00" arrivalLane="AC_C_1" arrivalPos="81.95" arrivalSpeed="1.28" duration="1067.00" routeLength="1234.78" waitSteps="136" timeLoss="275.61" rerouteNo="0" devices="tripinfo_flowsK2C.4" vType="fireTruck" vaporized=""/>
    <tripinfo id="flowsA2B.4" depart="27.00" departLane="A_AC_0" departPos="3.10" departSpeed="0.00" departDelay="6.00" arrival="1106.00" arrivalLane="AC_B_0" arrivalPos="448.55" arrivalSpeed="0.76" duration="1079.00" routeLength="896.90" waitSteps="27" timeLoss="237.26" rerouteNo="0" devices="tripinfo_flowsA2B.4" vType="car" vaporized=""/>
    <tripinfo id="flowsL2C.12" depart="115.00" departLane="L_LJ_0" departPos="8.10" departSpeed="0.00" departDelay="50.00" arrival="1111.00" arrivalLane="AC_C_0" arrivalPos="81.95" arrivalSpeed="1.40" duration="996.00" routeLength="1234.68" waitSteps="77" timeLoss="207.69" rerouteNo="0" devices="tripinfo_flowsL2C.12" vType="fireTruck" vaporized=""/>
    <tripinfo id="flowsA2B.5" depart="33.00" departLane="A_AC_0" departPos="3.10" departSpeed="0.00" departDelay="10.00" arrival="1112.00" arrivalLane="AC_B_0" arrivalPos="448.55" arrivalSpeed="0.76" duration="1079.00" routeLength="896.90" waitSteps="22" timeLoss="238.21" rerouteNo="0" devices="tripinfo_flowsA2B.5" vType="car" vaporized=""/>
    <tripinfo id="flowsA2B.9" depart="60.00" departLane="A_AC_0" departPos="3.10" departSpeed="0.00" departDelay="22.00" arrival="1113.00" arrivalLane="AC_B_0" arrivalPos="448.55" arrivalSpeed="1.01" duration="1053.00" routeLength="896.90" waitSteps="11" timeLoss="211.83" rerouteNo="0" devices="tripinfo_flowsA2B.9" vType="car" vaporized=""/>
    <tripinfo id="flowsI2J.7" depart="52.00" departLane="I_IK_0" departPos="3.10" departSpeed="0.00" departDelay="12.00" arrival="1117.00" arrivalLane="LJ_J_1" arrivalPos="298.55" arrivalSpeed="0.86" duration="1065.00" routeLength="896.90" waitSteps="24" timeLoss="223.18" rerouteNo="0" devices="tripinfo_flowsI2J.7" vType="car" vaporized=""/>
    <tripinfo id="flowsI2J.6" depart="45.00" departLane="I_IK_0" departPos="3.10" departSpeed="0.00" departDelay="16.00" arrival="1119.00" arrivalLane="LJ_J_0" arrivalPos="298.55" arrivalSpeed="0.98" duration="1074.00" routeLength="896.90" waitSteps="36" timeLoss="232.21" rerouteNo="0" devices="tripinfo_flowsI2J.6" vType="car" vaporized=""/>
    <tripinfo id="flowsA2B.7" depart="47.00" departLane="A_AC_0" departPos="3.10" departSpeed="0.00" departDelay="15.00" arrival="1120.00" arrivalLane="AC_B_0" arrivalPos="448.55" arrivalSpeed="1.00" duration="1073.00" routeLength="896.90" waitSteps="20" timeLoss="231.50" rerouteNo="0" devices="tripinfo_flowsA2B.7" vType="car" vaporized=""/>
    <tripinfo id="flowsA2B.10" depart="67.00" departLane="A_AC_0" departPos="3.10" departSpeed="0.00" departDelay="24.00" arrival="1125.00" arrivalLane="AC_B_1" arrivalPos="448.55" arrivalSpeed="0.90" duration="1058.00" routeLength="896.90" waitSteps="8" timeLoss="216.38" rerouteNo="0" devices="tripinfo_flowsA2B.10" vType="car" vaporized=""/>
    <tripinfo id="flowsA2B.11" depart="73.00" departLane="A_AC_0" departPos="3.10" departSpeed="0.00" departDelay="27.00" arrival="1127.00" arrivalLane="AC_B_0" arrivalPos="448.55" arrivalSpeed="0.74" duration="1054.00" routeLength="896.90" waitSteps="8" timeLoss="212.72" rerouteNo="0" devices="tripinfo_flowsA2B.11" vType="car" vaporized=""/>
    <tripinfo id="flowsI2J.9" depart="65.00" departLane="I_IK_0" departPos="3.10" departSpeed="0.00" departDelay="22.00" arrival="1129.00" arrivalLane="LJ_J_0" arrivalPos="298.55" arrivalSpeed="1.00" duration="1064.00" routeLength="896.90" waitSteps="20" timeLoss="222.44" rerouteNo="0" devices="tripinfo_flowsI2J.9" vType="car" vaporized=""/>
    <tripinfo id="flowsI2J.11" depart="79.00" departLane="I_IK_0" departPos="3.10" departSpeed="0.00" departDelay="27.00" arrival="1130.00" arrivalLane="LJ_J_1" arrivalPos="298.55" arrivalSpeed="0.79" duration="1051.00" routeLength="896.90" waitSteps="17" timeLoss="209.82" rerouteNo="0" devices="tripinfo_flowsI2J.11" vType="car" vaporized=""/>
    <tripinfo id="flowsI2J.13" depart="92.00" departLane="I_IK_0" departPos="3.10" departSpeed="0.00" departDelay="34.00" arrival="1137.00" arrivalLane="LJ_J_1" arrivalPos="298.55" arrivalSpeed="0.81" duration="1045.00" routeLength="896.90" waitSteps="8" timeLoss="203.69" rerouteNo="0" devices="tripinfo_flowsI2J.13" vType="car" vaporized=""/>
    <tripinfo id="flowsI2J.8" depart="59.00" departLane="I_IK_0" departPos="3.10" departSpeed="0.00" departDelay="17.00" arrival="1137.00" arrivalLane="LJ_J_0" arrivalPos="298.55" arrivalSpeed="0.67" duration="1078.00" routeLength="896.90" waitSteps="22" timeLoss="236.52" rerouteNo="0" devices="tripinfo_flowsI2J.8" vType="car" vaporized=""/>
    <tripinfo id="flowsI2J.10" depart="72.00" departLane="I_IK_0" departPos="3.10" departSpeed="0.00" departDelay="25.00" arrival="1144.00" arrivalLane="LJ_J_0" arrivalPos="298.55" arrivalSpeed="1.06" duration="1072.00" routeLength="896.90" waitSteps="22" timeLoss="230.05" rerouteNo="0" devices="tripinfo_flowsI2J.10" vType="car" vaporized=""/>
    <tripinfo id="flowsL2C.13" depart="125.00" departLane="L_LJ_0" departPos="8.10" departSpeed="0.00" departDelay="44.00" arrival="1152.00" arrivalLane="AC_C_0" arrivalPos="81.95" arrivalSpeed="1.25" duration="1027.00" routeLength="1234.68" waitSteps="105" timeLoss="237.87" rerouteNo="0" devices="tripinfo_flowsL2C.13" vType="fireTruck" vaporized=""/>
    <tripinfo id="flowsK2C.5" depart="49.00" departLane="K_IK_0" departPos="8.10" departSpeed="0.00" departDelay="32.00" arrival="1155.00" arrivalLane="AC_C_1" arrivalPos="81.95" arrivalSpeed="1.22" duration="1106.00" routeLength="1234.78" waitSteps="173" timeLoss="314.61" rerouteNo="0" devices="tripinfo_flowsK2C.5" vType="fireTruck" vaporized=""/>
    <tripinfo id="flowsG2H.0" depart="4.00" departLane="G_GD_0" departPos="3.10" departSpeed="0.00" departDelay="0.00" arrival="1155.00" arrivalLane="FH_H_0" arrivalPos="298.55" arrivalSpeed="0.84" duration="1151.00" routeLength="896.90" waitSteps="114" timeLoss="309.34" rerouteNo="0" devices="tripinfo_flowsG2H.0" vType="car" vaporized=""/>
    <tripinfo id="flowsG2H.1" depart="10.00" departLane="G_GD_0" departPos="3.10" departSpeed="0.00" departDelay="5.00" arrival="1156.00" arrivalLane="FH_H_0" arrivalPos="298.55" arrivalSpeed="0.98" duration="1146.00" routeLength="896.90" waitSteps="105" timeLoss="304.13" rerouteNo="0" devices="tripinfo_flowsG2H.1" vType="car" vaporized=""/>
    <tripinfo id="flowsA2B.13" depart="87.00" departLane="A_AC_0" departPos="3.10" departSpeed="0.00" departDelay="31.00" arrival="1160.00" arrivalLane="AC_B_1" arrivalPos="448.55" arrivalSpeed="0.75" duration="1073.00" routeLength="896.90" waitSteps="30" timeLoss="231.76" rerouteNo="0" devices="tripinfo_flowsA2B.13" vType="car" vaporized=""/>
    <tripinfo id="flowsA2B.12" depart="80.00" departLane="A_AC_0" departPos="3.10" departSpeed="0.00" departDelay="28.00" arrival="1160.00" arrivalLane="AC_B_0" arrivalPos="448.55" arrivalSpeed="1.04" duration="1080.00" routeLength="896.90" waitSteps="37" timeLoss="238.81" rerouteNo="0" devices="tripinfo_flowsA2B.12" vType="car" vaporized=""/>
    <tripinfo id="flowsL2C.14" depart="135.00" departLane="L_LJ_0" departPos="8.10" departSpeed="0.00" departDelay="52.00" arrival="1163.00" arrivalLane="AC_C_0" arrivalPos="81.95" arrivalSpeed="1.19" duration="1028.00" routeLength="1234.68" waitSteps="101" timeLoss="238.88" rerouteNo="0" devices="tripinfo_flowsL2C.14" vType="fireTruck" vaporized=""/>
    <tripinfo id="flowsK2C.6" depart="59.00" departLane="K_IK_0" departPos="8.10" departSpeed="0.00" departDelay="32.00" arrival="1164.00" arrivalLane="AC_C_1" arrivalPos="81.95" arrivalSpeed="1.33" duration="1105.00" routeLength="1234.78" waitSteps="167" timeLoss="313.93" rerouteNo="0" devices="tripinfo_flowsK2C.6" vType="fireTruck" vaporized=""/>
    <tripinfo id="flowsG2H.2" depart="17.00" departLane="G_GD_0" departPos="3.10" departSpeed="0.00" departDelay="7.00" arrival="1164.00" arrivalLane="FH_H_0" arrivalPos="298.55" arrivalSpeed="0.86" duration="1147.00" routeLength="896.90" waitSteps="102" timeLoss="305.37" rerouteNo="0" devices="tripinfo_flowsG2H.2" vType="car" vaporized=""/>
    <tripinfo id="flowsG2H.3" depart="23.00" departLane="G_GD_0" departPos="3.10" departSpeed="0.00" departDelay="7.00" arrival="1164.00" arrivalLane="FH_H_1" arrivalPos="298.55" arrivalSpeed="0.98" duration="1141.00" routeLength="896.90" waitSteps="92" timeLoss="299.05" rerouteNo="0" devices="tripinfo_flowsG2H.3" vType="car" vaporized=""/>
    <tripinfo id="flowsG2H.4" depart="30.00" departLane="G_GD_0" departPos="3.10" departSpeed="0.00" departDelay="12.00" arrival="1170.00" arrivalLane="FH_H_0" arrivalPos="298.55" arrivalSpeed="0.67" duration="1140.00" routeLength="896.90" waitSteps="88" timeLoss="298.81" rerouteNo="0" devices="tripinfo_flowsG2H.4" vType="car" vaporized=""/>
    <tripinfo id="flowsG2H.6" depart="44.00" departLane="G_GD_0" departPos="3.10" departSpeed="0.00" departDelay="16.00" arrival="1171.00" arrivalLane="FH_H_0" arrivalPos="298.55" arrivalSpeed="1.02" duration="1127.00" routeLength="896.90" waitSteps="79" timeLoss="285.39" rerouteNo="0" devices="tripinfo_flowsG2H.6" vType="car" vaporized=""/>
    <tripinfo id="flowsA2B.14" depart="94.00" departLane="A_AC_0" departPos="3.10" departSpeed="0.00" departDelay="37.00" arrival="1171.00" arrivalLane="AC_B_0" arrivalPos="448.55" arrivalSpeed="0.99" duration="1077.00" routeLength="896.90" waitSteps="34" timeLoss="235.69" rerouteNo="0" devices="tripinfo_flowsA2B.14" vType="car" vaporized=""/>
    <tripinfo id="flowsL2C.15" depart="145.00" departLane="L_LJ_0" departPos="8.10" departSpeed="0.00" departDelay="37.00" arrival="1172.00" arrivalLane="AC_C_0" arrivalPos="81.95" arrivalSpeed="1.37" duration="1027.00" routeLength="1234.68" waitSteps="96" timeLoss="238.27" rerouteNo="0" devices="tripinfo_flowsL2C.15" vType="fireTruck" vaporized=""/>
    <tripinfo id="flowsA2B.16" depart="108.00" departLane="A_AC_0" departPos="3.10" departSpeed="0.00" departDelay="44.00" arrival="1174.00" arrivalLane="AC_B_0" arrivalPos="448.55" arrivalSpeed="0.70" duration="1066.00" routeLength="896.90" waitSteps="17" timeLoss="224.40" rerouteNo="0" devices="tripinfo_flowsA2B.16" vType="car" vaporized=""/>
    <tripinfo id="flowsK2C.7" depart="68.00" departLane="K_IK_0" departPos="8.10" departSpeed="0.00" departDelay="38.00" arrival="1175.00" arrivalLane="AC_C_1" arrivalPos="81.95" arrivalSpeed="1.31" duration="1107.00" routeLength="1234.78" waitSteps="163" timeLoss="315.61" rerouteNo="0" devices="tripinfo_flowsK2C.7" vType="fireTruck" vaporized=""/>
    <tripinfo id="flowsG2H.7" depart="51.00" departLane="G_GD_0" departPos="3.10" departSpeed="0.00" departDelay="18.00" arrival="1180.00" arrivalLane="FH_H_0" arrivalPos="298.55" arrivalSpeed="0.95" duration="1129.00" routeLength="896.90" waitSteps="81" timeLoss="287.11" rerouteNo="0" devices="tripinfo_flowsG2H.7" vType="car" vaporized=""/>
    <tripinfo id="flowsA2B.17" depart="115.00" departLane="A_AC_0" departPos="3.10" departSpeed="0.00" departDelay="44.00" arrival="1180.00" arrivalLane="AC_B_1" arrivalPos="448.55" arrivalSpeed="0.85" duration="1065.00" routeLength="896.90" waitSteps="17" timeLoss="223.84" rerouteNo="0" devices="tripinfo_flowsA2B.17" vType="car" vaporized=""/>
    <tripinfo id="flowsG2H.5" depart="37.00" departLane="G_GD_0" departPos="3.10" departSpeed="0.00" departDelay="14.00" arrival="1181.00" arrivalLane="FH_H_1" arrivalPos="298.55" arrivalSpeed="0.69" duration="1144.00" routeLength="896.90" waitSteps="83" timeLoss="302.63" rerouteNo="0" devices="tripinfo_flowsG2H.5" vType="car" vaporized=""/>
    <tripinfo id="flowsA2B.15" depart="101.00" departLane="A_AC_0" departPos="3.10" departSpeed="0.00" departDelay="40.00" arrival="1181.00" arrivalLane="AC_B_0" arrivalPos="448.55" arrivalSpeed="0.93" duration="1080.00" routeLength="896.90" waitSteps="26" timeLoss="238.24" rerouteNo="0" devices="tripinfo_flowsA2B.15" vType="car" vaporized=""/>
    <tripinfo id="flowsL2C.16" depart="154.00" departLane="L_LJ_0" departPos="8.10" departSpeed="0.00" departDelay="40.00" arrival="1182.00" arrivalLane="AC_C_0" arrivalPos="81.95" arrivalSpeed="1.42" duration="1028.00" routeLength="1234.68" waitSteps="96" timeLoss="239.12" rerouteNo="0" devices="tripinfo_flowsL2C.16" vType="fireTruck" vaporized=""/>
    <tripinfo id="flowsG2H.9" depart="65.00" departLane="G_GD_0" departPos="3.10" departSpeed="0.00" departDelay="20.00" arrival="1187.00" arrivalLane="FH_H_0" arrivalPos="298.55" arrivalSpeed="0.87" duration="1122.00" routeLength="896.90" waitSteps="76" timeLoss="280.42" rerouteNo="0" devices="tripinfo_flowsG2H.9" vType="car" vaporized=""/>
    <tripinfo id="flowsG2H.8" depart="58.00" departLane="G_GD_0" departPos="3.10" departSpeed="0.00" departDelay="19.00" arrival="1188.00" arrivalLane="FH_H_0" arrivalPos="298.55" arrivalSpeed="0.95" duration="1130.00" routeLength="896.90" waitSteps="75" timeLoss="288.41" rerouteNo="0" devices="tripinfo_flowsG2H.8" vType="car" vaporized=""/>
    <tripinfo id="flowsA2B.18" depart="122.00" departLane="A_AC_0" departPos="3.10" departSpeed="0.00" departDelay="48.00" arrival="1189.00" arrivalLane="AC_B_0" arrivalPos="448.55" arrivalSpeed="0.79" duration="1067.00" routeLength="896.90" waitSteps="13" timeLoss="226.21" rerouteNo="0" devices="tripinfo_flowsA2B.18" vType="car" vaporized=""/>
    <tripinfo id="flowsA2B.21" depart="142.00" departLane="A_AC_0" departPos="3.10" departSpeed="0.00" departDelay="48.00" arrival="1190.00" arrivalLane="AC_B_0" arrivalPos="448.55" arrivalSpeed="0.98" duration="1048.00" routeLength="896.90" waitSteps="0" timeLoss="206.78" rerouteNo="0" devices="tripinfo_flowsA2B.21" vType="car" vaporized=""/>
    <tripinfo id="flowsG2H.10" depart="72.00" departLane="G_GD_0" departPos="3.10" departSpeed="0.00" departDelay="26.00" arrival="1195.00" arrivalLane="FH_H_0" arrivalPos="298.55" arrivalSpeed="0.76" duration="1123.00" routeLength="896.90" waitSteps="71" timeLoss="281.29" rerouteNo="0" devices="tripinfo_flowsG2H.10" vType="car" vaporized=""/>
    <tripinfo id="flowsG2H.11" depart="79.00" departLane="G_GD_0" departPos="3.10" departSpeed="0.00" departDelay="32.00" arrival="1195.00" arrivalLane="FH_H_1" arrivalPos="298.55" arrivalSpeed="0.83" duration="1116.00" routeLength="896.90" waitSteps="72" timeLoss="274.75" rerouteNo="0" devices="tripinfo_flowsG2H.11" vType="car" vaporized=""/>
    <tripinfo id="flowsA2B.22" depart="149.00" departLane="A_AC_0" departPos="3.10" departSpeed="0.00" departDelay="49.00" arrival="1196.00" arrivalLane="AC_B_1" arrivalPos="448.55" arrivalSpeed="0.82" duration="1047.00" routeLength="896.90" waitSteps="0" timeLoss="206.13" rerouteNo="0" devices="tripinfo_flowsA2B.22" vType="car" vaporized=""/>
    <tripinfo id="flowsA2B.19" depart="129.00" departLane="A_AC_0" departPos="3.10" departSpeed="0.00" departDelay="46.00" arrival="1198.00" arrivalLane="AC_B_0" arrivalPos="448.55" arrivalSpeed="1.06" duration="1069.00" routeLength="896.90" waitSteps="11" timeLoss="227.33" rerouteNo="0" devices="tripinfo_flowsA2B.19" vType="car" vaporized=""/>
    <tripinfo id="flowsG2H.13" depart="92.00" departLane="G_GD_0" departPos="3.10" departSpeed="0.00" departDelay="28.00" arrival="1201.00" arrivalLane="FH_H_1" arrivalPos="298.55" arrivalSpeed="1.04" duration="1109.00" routeLength="896.90" waitSteps="56" timeLoss="267.71" rerouteNo="0" devices="tripinfo_flowsG2H.13" vType="car" vaporized=""/>
    <tripinfo id="flowsG2H.12" depart="85.00" departLane="G_GD_0" departPos="3.10" departSpeed="0.00" departDelay="36.00" arrival="1203.00" arrivalLane="FH_H_0" arrivalPos="298.55" arrivalSpeed="0.70" duration="1118.00" routeLength="896.90" waitSteps="63" timeLoss="276.56" rerouteNo="0" devices="tripinfo_flowsG2H.12" vType="car" vaporized=""/>
    <tripinfo id="flowsG2H.16" depart="112.00" departLane="G_GD_0" departPos="3.10" departSpeed="0.00" departDelay="30.00" arrival="1208.00" arrivalLane="FH_H_1" arrivalPos="298.55" arrivalSpeed="1.06" duration="1096.00" routeLength="896.90" waitSteps="48" timeLoss="254.62" rerouteNo="0" devices="tripinfo_flowsG2H.16" vType="car" vaporized=""/>
    <tripinfo id="flowsG2H.14" depart="99.00" departLane="G_GD_0" departPos="3.10" departSpeed="0.00" departDelay="34.00" arrival="1210.00" arrivalLane="FH_H_0" arrivalPos="298.55" arrivalSpeed="0.79" duration="1111.00" routeLength="896.90" waitSteps="54" timeLoss="269.41" rerouteNo="0" devices="tripinfo_flowsG2H.14" vType="car" vaporized=""/>
    <tripinfo id="flowsG2H.19" depart="133.00" departLane="G_GD_0" departPos="3.10" departSpeed="0.00" departDelay="32.00" arrival="1217.00" arrivalLane="FH_H_1" arrivalPos="298.55" arrivalSpeed="0.96" duration="1084.00" routeLength="896.90" waitSteps="39" timeLoss="242.59" rerouteNo="0" devices="tripinfo_flowsG2H.19" vType="car" vaporized=""/>
    <tripinfo id="flowsG2H.15" depart="105.00" departLane="G_GD_0" departPos="3.10" departSpeed="0.00" departDelay="28.00" arrival="1218.00" arrivalLane="FH_H_0" arrivalPos="298.55" arrivalSpeed="0.95" duration="1113.00" routeLength="896.90" waitSteps="55" timeLoss="272.04" rerouteNo="0" devices="tripinfo_flowsG2H.15" vType="car" vaporized=""/>
    <tripinfo id="flowsK2C.8" depart="77.00" departLane="K_IK_0" departPos="8.10" departSpeed="0.00" departDelay="46.00" arrival="1223.00" arrivalLane="AC_C_1" arrivalPos="81.95" arrivalSpeed="1.27" duration="1146.00" routeLength="1234.78" waitSteps="200" timeLoss="354.67" rerouteNo="0" devices="tripinfo_flowsK2C.8" vType="fireTruck" vaporized=""/>
    <tripinfo id="flowsL2C.17" depart="164.00" departLane="L_LJ_0" departPos="8.10" departSpeed="0.00" departDelay="32.00" arrival="1223.00" arrivalLane="AC_C_0" arrivalPos="81.95" arrivalSpeed="1.42" duration="1059.00" routeLength="1234.68" waitSteps="124" timeLoss="270.19" rerouteNo="0" devices="tripinfo_flowsL2C.17" vType="fireTruck" vaporized=""/>
    <tripinfo id="flowsG2H.18" depart="126.00" departLane="G_GD_0" departPos="3.10" departSpeed="0.00" departDelay="28.00" arrival="1224.00" arrivalLane="FH_H_1" arrivalPos="298.55" arrivalSpeed="1.03" duration="1098.00" routeLength="896.90" waitSteps="43" timeLoss="256.55" rerouteNo="0" devices="tripinfo_flowsG2H.18" vType="car" vaporized=""/>
    <tripinfo id="flowsG2H.17" depart="119.00" departLane="G_GD_0" departPos="3.10" departSpeed="0.00" departDelay="32.00" arrival="1225.00" arrivalLane="FH_H_0" arrivalPos="298.55" arrivalSpeed="0.69" duration="1106.00" routeLength="896.90" waitSteps="53" timeLoss="264.56" rerouteNo="0" devices="tripinfo_flowsG2H.17" vType="car" vaporized=""/>